# vtk DataFile Version 2.0
output_transformed, Created by Gmsh 4.13.1 
ASCII
DATASET UNSTRUCTURED_GRID
POINTS 2160 double
-1930 2500 0
-1750 2500 0
-1970 2580 0
-1710 2580 0
-1930 2500 2500
-1750 2500 2500
-1710 2580 2500
-1970 2580 2500
-1930 2500 833.3333333333333
-1930 2500 1250
-1930 2500 1666.666666666667
-1930 2500 1875
-1930 2500 2083.333333333333
-1930 2500 2291.666666666667
-1750 2500 833.3333333333333
-1750 2500 1250
-1750 2500 1666.666666666667
-1750 2500 1875
-1750 2500 2083.333333333333
-1750 2500 2291.666666666667
-1710 2580 833.3333333333333
-1710 2580 1250
-1710 2580 1666.666666666667
-1710 2580 1875
-1710 2580 2083.333333333333
-1710 2580 2291.666666666667
-1970 2580 833.3333333333333
-1970 2580 1250
-1970 2580 1666.666666666667
-1970 2580 1875
-1970 2580 2083.333333333333
-1970 2580 2291.666666666667
-2500 0 0
-1930 0 0
-2500 2500 0
-2500 0 2500
-1930 0 2500
-2500 2500 2500
-2500 0 833.3333333333333
-2500 0 1250
-2500 0 1666.666666666667
-2500 0 1875
-2500 0 2083.333333333333
-2500 0 2291.666666666667
-1930 0 833.3333333333333
-1930 0 1250
-1930 0 1666.666666666667
-1930 0 1875
-1930 0 2083.333333333333
-1930 0 2291.666666666667
-2500 2500 833.3333333333333
-2500 2500 1250
-2500 2500 1666.666666666667
-2500 2500 1875
-2500 2500 2083.333333333333
-2500 2500 2291.666666666667
-1750 0 0
-1750 0 2500
-1750 0 833.3333333333333
-1750 0 1250
-1750 0 1666.666666666667
-1750 0 1875
-1750 0 2083.333333333333
-1750 0 2291.666666666667
-1180 0 0
-1180 2500 0
-1180 0 2500
-1180 2500 2500
-1180 0 833.3333333333333
-1180 0 1250
-1180 0 1666.666666666667
-1180 0 1875
-1180 0 2083.333333333333
-1180 0 2291.666666666667
-1180 2500 833.3333333333333
-1180 2500 1250
-1180 2500 1666.666666666667
-1180 2500 1875
-1180 2500 2083.333333333333
-1180 2500 2291.666666666667
-2500 2580 0
-2500 2580 2500
-2500 2580 833.3333333333333
-2500 2580 1250
-2500 2580 1666.666666666667
-2500 2580 1875
-2500 2580 2083.333333333333
-2500 2580 2291.666666666667
-2500 2590 0
-1975 2590 0
-1975 2590 2500
-2500 2590 2500
-1975 2590 833.3333333333333
-1975 2590 1250
-1975 2590 1666.666666666667
-1975 2590 1875
-1975 2590 2083.333333333333
-1975 2590 2291.666666666667
-2500 2590 833.3333333333333
-2500 2590 1250
-2500 2590 1666.666666666667
-2500 2590 1875
-2500 2590 2083.333333333333
-2500 2590 2291.666666666667
-2500 2640 0
-2000 2640 0
-2000 2640 2500
-2500 2640 2500
-2000 2640 833.3333333333333
-2000 2640 1250
-2000 2640 1666.666666666667
-2000 2640 1875
-2000 2640 2083.333333333333
-2000 2640 2291.666666666667
-2500 2640 833.3333333333333
-2500 2640 1250
-2500 2640 1666.666666666667
-2500 2640 1875
-2500 2640 2083.333333333333
-2500 2640 2291.666666666667
-1180 2580 0
-1180 2580 2500
-1180 2580 833.3333333333333
-1180 2580 1250
-1180 2580 1666.666666666667
-1180 2580 1875
-1180 2580 2083.333333333333
-1180 2580 2291.666666666667
-1180 2590 0
-1705 2590 0
-1180 2590 2500
-1705 2590 2500
-1180 2590 833.3333333333333
-1180 2590 1250
-1180 2590 1666.666666666667
-1180 2590 1875
-1180 2590 2083.333333333333
-1180 2590 2291.666666666667
-1705 2590 833.3333333333333
-1705 2590 1250
-1705 2590 1666.666666666667
-1705 2590 1875
-1705 2590 2083.333333333333
-1705 2590 2291.666666666667
-1180 2640 0
-1680 2640 0
-1180 2640 2500
-1680 2640 2500
-1180 2640 833.3333333333333
-1180 2640 1250
-1180 2640 1666.666666666667
-1180 2640 1875
-1180 2640 2083.333333333333
-1180 2640 2291.666666666667
-1680 2640 833.3333333333333
-1680 2640 1250
-1680 2640 1666.666666666667
-1680 2640 1875
-1680 2640 2083.333333333333
-1680 2640 2291.666666666667
-2500 0 2505
-1930 0 2505
-1930 2500 2505
-2500 2500 2505
-1750 0 2505
-1750 2500 2505
-1180 0 2505
-1180 2500 2505
-1970 2580 2505
-2500 2580 2505
-1975 2590 2505
-2500 2590 2505
-2000 2640 2505
-2500 2640 2505
-1180 2580 2505
-1710 2580 2505
-1180 2590 2505
-1705 2590 2505
-1180 2640 2505
-1680 2640 2505
-2500 0 5005
-1930 0 5005
-1930 2500 5005
-2500 2500 5005
-2500 0 2713.333333333333
-2500 0 2921.666666666667
-2500 0 3130
-2500 0 3338.333333333333
-2500 0 3755
-2500 0 4171.666666666666
-1930 0 2713.333333333333
-1930 0 2921.666666666667
-1930 0 3130
-1930 0 3338.333333333333
-1930 0 3755
-1930 0 4171.666666666666
-1930 2500 2713.333333333333
-1930 2500 2921.666666666667
-1930 2500 3130
-1930 2500 3338.333333333333
-1930 2500 3755
-1930 2500 4171.666666666666
-2500 2500 2713.333333333333
-2500 2500 2921.666666666667
-2500 2500 3130
-2500 2500 3338.333333333333
-2500 2500 3755
-2500 2500 4171.666666666666
-1750 0 5005
-1750 2500 5005
-1750 0 2713.333333333333
-1750 0 2921.666666666667
-1750 0 3130
-1750 0 3338.333333333333
-1750 0 3755
-1750 0 4171.666666666666
-1750 2500 2713.333333333333
-1750 2500 2921.666666666667
-1750 2500 3130
-1750 2500 3338.333333333333
-1750 2500 3755
-1750 2500 4171.666666666666
-1180 0 5005
-1180 2500 5005
-1180 0 2713.333333333333
-1180 0 2921.666666666667
-1180 0 3130
-1180 0 3338.333333333333
-1180 0 3755
-1180 0 4171.666666666666
-1180 2500 2713.333333333333
-1180 2500 2921.666666666667
-1180 2500 3130
-1180 2500 3338.333333333333
-1180 2500 3755
-1180 2500 4171.666666666666
-1970 2580 5005
-2500 2580 5005
-1970 2580 2713.333333333333
-1970 2580 2921.666666666667
-1970 2580 3130
-1970 2580 3338.333333333333
-1970 2580 3755
-1970 2580 4171.666666666666
-2500 2580 2713.333333333333
-2500 2580 2921.666666666667
-2500 2580 3130
-2500 2580 3338.333333333333
-2500 2580 3755
-2500 2580 4171.666666666666
-1975 2590 5005
-2500 2590 5005
-1975 2590 2713.333333333333
-1975 2590 2921.666666666667
-1975 2590 3130
-1975 2590 3338.333333333333
-1975 2590 3755
-1975 2590 4171.666666666666
-2500 2590 2713.333333333333
-2500 2590 2921.666666666667
-2500 2590 3130
-2500 2590 3338.333333333333
-2500 2590 3755
-2500 2590 4171.666666666666
-2000 2640 5005
-2500 2640 5005
-2000 2640 2713.333333333333
-2000 2640 2921.666666666667
-2000 2640 3130
-2000 2640 3338.333333333333
-2000 2640 3755
-2000 2640 4171.666666666666
-2500 2640 2713.333333333333
-2500 2640 2921.666666666667
-2500 2640 3130
-2500 2640 3338.333333333333
-2500 2640 3755
-2500 2640 4171.666666666666
-1180 2580 5005
-1710 2580 5005
-1180 2580 2713.333333333333
-1180 2580 2921.666666666667
-1180 2580 3130
-1180 2580 3338.333333333333
-1180 2580 3755
-1180 2580 4171.666666666666
-1710 2580 2713.333333333333
-1710 2580 2921.666666666667
-1710 2580 3130
-1710 2580 3338.333333333333
-1710 2580 3755
-1710 2580 4171.666666666666
-1180 2590 5005
-1705 2590 5005
-1180 2590 2713.333333333333
-1180 2590 2921.666666666667
-1180 2590 3130
-1180 2590 3338.333333333333
-1180 2590 3755
-1180 2590 4171.666666666666
-1705 2590 2713.333333333333
-1705 2590 2921.666666666667
-1705 2590 3130
-1705 2590 3338.333333333333
-1705 2590 3755
-1705 2590 4171.666666666666
-1180 2640 5005
-1680 2640 5005
-1180 2640 2713.333333333333
-1180 2640 2921.666666666667
-1180 2640 3130
-1180 2640 3338.333333333333
-1180 2640 3755
-1180 2640 4171.666666666666
-1680 2640 2713.333333333333
-1680 2640 2921.666666666667
-1680 2640 3130
-1680 2640 3338.333333333333
-1680 2640 3755
-1680 2640 4171.666666666666
1320 0 0
1320 2500 0
1320 2500 2500
1320 0 2500
1320 2500 833.3333333333333
1320 2500 1250
1320 2500 1666.666666666667
1320 2500 1875
1320 2500 2083.333333333333
1320 2500 2291.666666666667
1320 0 2291.666666666667
1320 0 2083.333333333333
1320 0 1875
1320 0 1666.666666666667
1320 0 1250
1320 0 833.3333333333333
-971.6666666666667 0 0
-763.3333333333334 0 0
-555 0 0
-242.5 0 0
70 0 0
695 0 0
-971.6666666666667 2500 0
-763.3333333333334 2500 0
-555 2500 0
-242.5 2500 0
70 2500 0
695 2500 0
-971.6666666666667 2500 2500
-763.3333333333334 2500 2500
-555 2500 2500
-242.5 2500 2500
70 2500 2500
695 2500 2420.938716771325
-971.6666666666667 0 2500
-763.3333333333334 0 2500
-555 0 2500
-242.5 0 2500
70 0 2500
695 0 2500
-971.6666666666667 2500 833.3333333333333
-763.3333333333334 2500 833.3333333333333
-555 2500 833.3333333333333
-242.5 2500 833.3333333333333
70 2500 833.3333333333333
695 2500 833.3333333333333
-971.6666666666667 2500 1250
-763.3333333333334 2500 1250
-555 2500 1250
-242.5 2500 1250
70 2500 1250
695 2500 1250
-971.6666666666667 2500 1666.666666666667
-763.3333333333334 2500 1666.666666666667
-555 2500 1666.666666666667
-242.5 2500 1666.666666666667
70 2500 1666.666666666667
695 2500 1666.666666666667
-971.6666666666667 2500 1875
-763.3333333333334 2500 1875
-555 2500 1875
-242.5 2500 1875
70 2500 1875
695 2500 1875
-971.6666666666667 2500 2083.333333333333
-763.3333333333334 2500 2083.333333333333
-555 2500 2083.333333333333
-242.5 2500 2083.333333333333
70 2500 2083.333333333333
695 2500 2083.333333333333
-971.6666666666667 2500 2291.666666666667
-763.3333333333334 2500 2291.666666666667
-555 2500 2291.666666666667
-242.5 2500 2291.666666666667
70 2500 2291.666666666667
695 2500 2291.666666666667
-971.6666666666667 0 833.3333333333333
-763.3333333333334 0 833.3333333333333
-555 0 833.3333333333333
-242.5 0 833.3333333333333
70 0 833.3333333333333
695 0 833.3333333333333
-971.6666666666667 0 1250
-763.3333333333334 0 1250
-555 0 1250
-242.5 0 1250
70 0 1250
695 0 1250
-971.6666666666667 0 1666.666666666667
-763.3333333333334 0 1666.666666666667
-555 0 1666.666666666667
-242.5 0 1666.666666666667
70 0 1666.666666666667
695 0 1666.666666666667
-971.6666666666667 0 1875
-763.3333333333334 0 1875
-555 0 1875
-242.5 0 1875
70 0 1875
695 0 1875
-971.6666666666667 0 2083.333333333333
-763.3333333333334 0 2083.333333333333
-555 0 2083.333333333333
-242.5 0 2083.333333333333
70 0 2083.333333333333
695 0 2083.333333333333
-971.6666666666667 0 2291.666666666667
-763.3333333333334 0 2291.666666666667
-555 0 2291.666666666667
-242.5 0 2291.666666666667
70 0 2291.666666666667
695 0 2291.666666666667
1320 2580 0
1320 2580 2500
1320 2580 833.3333333333333
1320 2580 1250
1320 2580 1666.666666666667
1320 2580 1875
1320 2580 2083.333333333333
1320 2580 2291.666666666667
-971.6666666666667 2580 0
-763.3333333333334 2580 0
-555 2580 0
-242.5 2580 0
70 2580 0
695 2580 0
[...]
CELL_DATA 1574
SCALARS CellEntityIds int 1
LOOKUP_TABLE default
3
3
3
3
3
3
3
1
1
1
1
1
1
1
1
1
1
1
1
1
1
1
1
1
1
1
1
1
1
1
1
1
1
1
1
1
1
1
1
1
1
1
1
1
1
1
1
1
1
1
1
1
1
1
1
1
1
1
1
1
1
1
1
1
1
1
1
1
1
1
1
1
1
1
1
1
1
1
1
2
2
1
1
1
1
1
1
1
1
1
1
1
1
1
1
1
1
1
1
1
1
1
1
1
1
1
1
1
1
1
1
1
1
1
1
1
1
1
1
1
1
1
1
1
1
1
1
1
1
1
1
1
1
1
1
1
1
1
1
1
1
1
1
1
1
1
1
1
1
1
1
1
1
1
1
1
1
1
1
1
1
1
1
1
1
1
1
1
1
1
1
1
1
1
1
1
1
1
1
1
1
1
1
1
1
1
1
1
1
1
1
1
1
1
1
1
1
1
1
1
1
1
1
1
1
1
1
1
1
1
1
1
1
1
1
1
1
1
1
1
1
1
1
1
1
1
1
1
1
1
1
1
1
1
1
1
1
1
1
1
1
1
1
1
1
1
1
1
1
1
1
1
1
1
1
1
1
1
1
1
1
1
1
1
1
1
1
1
1
1
1
1
1
1
1
1
1
1
1
1
1
1
1
1
1
1
1
1
1
1
1
1
1
1
1
1
1
1
1
1
1
1
1
1
1
1
1
1
1
1
1
1
1
1
1
1
1
1
1
1
1
1
1
1
1
1
1
1
1
1
1
1
1
1
1
1
1
1
1
1
1
1
1
1
1
1
1
1
1
1
1
1
1
1
1
1
1
1
1
1
1
1
1
1
1
1
1
1
1
1
1
1
1
1
1
1
1
1
1
1
1
1
1
1
1
1
1
1
1
1
1
1
1
1
1
1
1
1
1
1
1
1
1
1
1
1
1
1
1
1
1
1
1
1
1
1
1
1
1
1
1
1
1
1
1
1
1
1
1
1
1
1
1
1
1
1
1
1
1
1
1
1
1
1
1
1
1
1
1
1
1
1
1
1
1
1
1
1
1
1
1
1
1
1
1
1
1
1
1
1
1
1
1
1
1
1
1
1
1
1
1
1
1
1
1
1
1
1
1
1
1
1
1
1
1
1
1
1
1
1
1
1
1
1
1
1
1
1
1
1
1
1
1
1
1
1
1
1
1
1
1
1
1
1
1
1
1
1
1
1
1
1
1
1
1
1
1
1
1
1
1
1
1
1
1
1
1
1
1
1
1
1
1
1
1
1
1
1
1
1
1
1
1
1
1
1
1
1
1
1
1
1
1
1
1
1
1
1
1
1
1
1
1
1
1
1
1
1
1
1
1
1
1
1
1
1
1
1
1
1
1
1
1
1
1
1
1
1
1
1
1
1
1
1
1
1
1
1
1
1
1
1
1
1
1
1
1
1
1
1
1
1
1
1
1
1
1
1
1
1
1
1
1
1
1
1
1
1
1
1
1
1
1
1
1
1
1
1
1
1
1
1
1
1
1
1
1
1
1
1
1
1
1
1
1
1
1
1
1
1
1
1
1
1
1
1
1
1
1
1
1
1
1
1
1
1
1
1
1
1
1
1
1
1
1
1
1
1
1
1
1
1
1
1
1
1
1
1
1
1
1
1
1
1
1
1
1
1
1
1
1
1
1
1
1
1
1
1
1
1
1
1
1
1
1
1
1
1
1
1
1
1
1
1
1
1
1
1
1
1
1
1
1
1
1
1
1
1
1
1
1
1
1
1
1
1
1
1
1
1
1
1
1
1
1
1
1
1
1
1
1
1
1
1
1
1
1
1
1
1
1
1
1
1
1
1
1
1
1
1
1
1
1
1
1
1
1
1
1
1
1
1
1
1
1
1
1
1
1
1
1
1
1
1
1
1
1
1
1
1
1
1
1
1
1
1
1
1
1
1
1
1
1
1
1
1
1
1
1
1
1
1
1
1
1
1
1
1
1
1
1
1
1
1
1
1
1
1
1
1
1
1
1
1
1
1
1
1
1
1
1
1
1
1
1
1
1
1
1
1
1
1
1
1
1
1
1
1
1
1
1
1
1
1
1
1
1
1
1
1
1
1
1
1
1
1
1
1
1
1
1
1
1
1
1
1
1
1
1
1
1
1
1
1
1
1
1
1
1
1
1
1
1
1
1
1
1
1
1
1
1
1
1
1
1
1
1
1
1
1
1
1
1
1
1
1
1
1
1
1
1
1
1
1
7
7
7
7
7
7
7
7
7
7
7
7
7
7
7
7
7
7
7
7
7
7
7
7
7
7
7
7
7
7
7
7
7
7
7
7
7
7
7
7
7
7
7
7
7
7
7
7
7
7
7
7
7
7
7
7
7
7
7
7
8
8
8
8
8
8
8
8
8
8
8
8
8
8
8
8
8
8
8
8
8
8
8
8
8
8
8
8
8
8
8
8
8
8
8
8
8
8
8
8
8
8
8
8
8
8
8
8
8
8
8
8
8
8
8
8
8
8
8
8
9
9
9
9
9
9
9
9
9
9
9
9
9
9
9
9
9
9
9
9
9
9
9
9
9
9
9
9
9
9
9
9
9
9
9
9
9
9
9
9
9
9
9
9
9
9
9
9
9
9
9
9
9
9
9
9
9
9
9
9
9
9
9
9
9
10
10
10
10
10
10
10
10
10
10
10
10
10
10
10
10
10
10
10
10
10
10
10
10
10
10
10
10
10
10
10
10
10
10
10
10
10
10
10
10
10
10
10
10
10
10
10
10
10
10
10
10
10
10
10
10
10
10
10
10
10
10
10
10
10
11
11
11
11
11
11
11
11
11
11
11
11
11
11
11
11
11
11
11
11
11
11
11
11
11
11
11
11
11
11
11
11
11
11
11
11
11
11
11
11
11
11
11
11
11
11
11
11
11
11
11
11
11
11
11
11
11
11
11
11
11
11
11
11
11
11
11
11
11
11
11
11
11
11
11
11
11
11
11
11
11
11
11
11
11
11
11
11
11
11
11
11
11
11
11
11
11
11
11
11
11
11
11
11
11
11
11
11
11
11
11
11
11
11
11
11
11
11
11
11
11
11
11
11
11
11
11
11
11
11
11
11
11
11
11
11
11
11
11
11
11
11
11
11
11
11
11
11
11
11
11
11
11
11
11
11
11
11
11
11
11
11
11
11
11
11
11
11
11
11
11
11
11
11
11
11
11
11
11
11
11
11
11
11
11
11
11
11
11
11
11
11
11
11
11
11
11
11
11
11
11
11
11
11
11
11
11
11
11
11
11
11
11
11
11
11
11
11
11
11
11
11
11
11
11
11
11
11
11
11
11
11
11
11
11
11
11
11
11
11
11
11
11
11
11
11
11
11
11
11
11
11
11
11
11
12
12
12
12
12
12
12
12
12
12
12
12
12
12
12
5
5
5
5
5
5
5
5
5
5
5
5
5
5
5
13
13
13
13
13
13
13
13
13
13
13
13
13
13
13
13
13
14
14
14
14
14
14
14
14
14
14
14
14
14
14
14
14
14
21
18
15
15
15
15
19
17
17
17
17
16
16
16
16
20
4
6
6
6
6
